Program Version,EnergyPlus 2.0.0.025, 11/15/2007 9:53 AM
1,5,Environment Title[],Latitude[degrees],Longitude[degrees],Time Zone[],Elevation[m]
2,6,Day of Simulation[],Month[],Day of Month[],DST Indicator[1=yes 0=no],Hour[],StartMinute[],EndMinute[],DayType
3,3,Cumulative Day of Simulation[],Month[],Day of Month[],DST Indicator[1=yes 0=no],DayType  ! When Daily Report Variables Requested
4,2,Cumulative Days of Simulation[],Month[]  ! When Monthly Report Variables Requested
5,1,Cumulative Days of Simulation[] ! When Run Period Report Variables Requested
   6,2,1,Temperatures []!Hourly
   7,2,2,Temperatures []!Hourly
   8,2,3,Temperatures []!Hourly
   9,2,4,Temperatures []!Hourly
  10,2,5,Temperatures []!Hourly
  11,2,6,Temperatures []!Hourly
  12,2,7,Temperatures []!Hourly
  13,2,8,Temperatures []!Hourly
  14,2,9,Temperatures []!Hourly
  15,2,10,Temperatures []!Hourly
  16,2,11,Temperatures []!Hourly
  17,2,12,Temperatures []!Hourly
  18,2,13,Temperatures []!Hourly
  19,2,14,Temperatures []!Hourly
  20,2,15,Temperatures []!Hourly
  21,2,16,Temperatures []!Hourly
  22,2,17,Temperatures []!Hourly
  23,2,18,Temperatures []!Hourly
  24,2,19,Temperatures []!Hourly
  25,2,20,Temperatures []!Hourly
  26,2,21,Temperatures []!Hourly
  27,2,22,Temperatures []!Hourly
  28,2,23,Temperatures []!Hourly
  29,2,24,Temperatures []!Hourly
  30,2,25,Temperatures []!Hourly
  31,2,26,Temperatures []!Hourly
  32,2,27,Temperatures []!Hourly
  33,2,28,Temperatures []!Hourly
  34,2,30,Temperatures []!Hourly
  35,2,31,Temperatures []!Hourly
  36,2,32,Temperatures []!Hourly
  37,2,33,Temperatures []!Hourly
  38,2,35,Temperatures []!Hourly
  39,2,36,Temperatures []!Hourly
  40,2,37,Temperatures []!Hourly
  41,2,38,Temperatures []!Hourly
  42,2,39,Temperatures []!Hourly
  43,2,40,Temperatures []!Hourly
  44,2,41,Temperatures []!Hourly
  45,2,42,Temperatures []!Hourly
  46,2,43,Temperatures []!Hourly
  47,2,44,Temperatures []!Hourly
  48,2,45,Temperatures []!Hourly
  49,2,46,Temperatures []!Hourly
  50,2,47,Temperatures []!Hourly
  51,2,48,Temperatures []!Hourly
  52,2,50,Temperatures []!Hourly
  53,2,51,Temperatures []!Hourly
  54,2,52,Temperatures []!Hourly
  55,2,53,Temperatures []!Hourly
  56,2,54,Temperatures []!Hourly
  57,2,55,Temperatures []!Hourly
  58,2,57,Temperatures []!Hourly
  59,2,58,Temperatures []!Hourly
  60,2,59,Temperatures []!Hourly
  61,2,60,Temperatures []!Hourly
  62,2,61,Temperatures []!Hourly
  63,2,62,Temperatures []!Hourly
  64,2,63,Temperatures []!Hourly
  65,2,64,Temperatures []!Hourly
  66,2,65,Temperatures []!Hourly
  67,2,66,Temperatures []!Hourly
  68,2,67,Temperatures []!Hourly
  69,2,68,Temperatures []!Hourly
End of Data Dictionary
1,TRNSYS 17 Printer File,0.0,0.0,0.0,0.0
2,304,10,31, 0,24, 0.00,60.00,Wednesday 
   6, 2.000000000E+01
   7, 2.000000000E+01
   8, 2.000000000E+01
   9, 2.000000000E+01
  10, 2.000000000E+01
  11, 2.000000000E+01
  12, 2.000000000E+01
  13, 2.000000000E+01
  14, 2.000000000E+01
  15, 2.000000000E+01
  16, 2.000000000E+01
  17, 2.000000000E+01
  18, 2.000000000E+01
  19, 2.000000000E+01
  20, 2.000000000E+01
  21, 2.000000000E+01
  22, 2.000000000E+01
  23, 2.000000000E+01
  24, 2.000000000E+01
  25, 2.000000000E+01
  26, 2.000000000E+01
  27, 2.000000000E+01
  28, 2.000000000E+01
  29, 2.000000000E+01
  30, 2.000000000E+01
  31, 2.000000000E+01
  32, 2.000000000E+01
  33, 2.000000000E+01
  34, 2.000000000E+01
  35, 2.000000000E+01
  36, 2.000000000E+01
  37, 2.000000000E+01
  38, 2.000000000E+01
  39, 2.000000000E+01
  40, 2.000000000E+01
  41, 2.000000000E+01
  42, 2.000000000E+01
  43, 2.000000000E+01
  44, 2.000000000E+01
  45, 2.000000000E+01
  46, 2.000000000E+01
  47, 2.000000000E+01
  48, 2.000000000E+01
  49, 2.000000000E+01
  50, 2.000000000E+01
  51, 2.000000000E+01
  52, 2.000000000E+01
  53, 2.000000000E+01
  54, 2.000000000E+01
  55, 2.000000000E+01
  56, 2.000000000E+01
  57, 2.000000000E+01
  58, 2.000000000E+01
  59, 2.000000000E+01
  60, 2.000000000E+01
  61, 2.000000000E+01
  62, 2.000000000E+01
  63, 2.000000000E+01
  64, 2.000000000E+01
  65, 2.000000000E+01
  66, 2.000000000E+01
  67, 2.000000000E+01
  68, 2.000000000E+01
  69, 2.000000000E+01
2,305,11, 1, 0, 1, 0.00,60.00,Thursday  
   6, 1.996829031E+01
   7, 1.994900982E+01
   8, 1.996097965E+01
   9, 1.996874845E+01
  10, 1.997339020E+01
  11, 1.997325856E+01
  12, 1.997026509E+01
  13, 1.997132907E+01
  14, 1.997363093E+01
  15, 1.997338070E+01
  16, 1.997372911E+01
  17, 1.996681305E+01
  18, 1.995784158E+01
  19, 1.996898551E+01
  20, 1.997264604E+01
  21, 1.997262315E+01
  22, 1.997375340E+01
  23, 1.997189926E+01
  24, 1.996793003E+01
  25, 1.997076260E+01
  26, 1.997158785E+01
  27, 1.995483670E+01
  28, 1.997218253E+01
  29, 1.997161100E+01
  30, 1.997235602E+01
  31, 1.997357832E+01
  32, 1.997114864E+01
  33, 1.997091193E+01
  34, 1.997349423E+01
  35, 1.995734325E+01
  36, 1.997403346E+01
  37, 1.997166964E+01
  38, 1.994268038E+01
  39, 1.996354242E+01
  40, 1.996300487E+01
  41, 1.996934350E+01
  42, 1.994623742E+01
  43, 1.997338887E+01
  44, 1.997317473E+01
  45, 1.996726559E+01
  46, 1.997044603E+01
  47, 1.997212107E+01
  48, 1.997266734E+01
  49, 1.996741082E+01
  50, 1.996247367E+01
  51, 1.997268649E+01
  52, 1.997208507E+01
  53, 1.996358950E+01
  54, 1.996972406E+01
  55, 1.997174244E+01
  56, 1.997087200E+01
  57, 1.996621942E+01
  58, 1.997446061E+01
  59, 1.996715641E+01
  60, 1.997204129E+01
  61, 1.997291069E+01
  62, 1.997248961E+01
  63, 1.995724620E+01
  64, 1.995469845E+01
  65, 1.997476763E+01
  66, 1.996938185E+01
  67, 1.995091297E+01
  68, 1.997107912E+01
  69, 1.997303757E+01
2,305,11, 1, 0, 2, 0.00,60.00,Thursday  
   6, 1.995528575E+01
   7, 1.992910785E+01
   8, 1.994538106E+01
   9, 1.995584040E+01
  10, 1.996222076E+01
  11, 1.996207841E+01
  12, 1.995793887E+01
  13, 1.995937342E+01
  14, 1.996252574E+01
  15, 1.996214794E+01
  16, 1.996263658E+01
  17, 1.995314728E+01
  18, 1.994094278E+01
  19, 1.995620343E+01
  20, 1.996120844E+01
  21, 1.996119749E+01
  22, 1.996276534E+01
  23, 1.996004927E+01
  24, 1.995474391E+01
  25, 1.995842762E+01
  26, 1.995968878E+01
  27, 1.993694142E+01
  28, 1.996055097E+01
  29, 1.995978662E+01
  30, 1.996072829E+01
  31, 1.996249299E+01
  32, 1.995906187E+01
  33, 1.995886483E+01
  34, 1.996235245E+01
  35, 1.994039304E+01
  36, 1.996312042E+01
  37, 1.995990857E+01
  38, 1.992047119E+01
  39, 1.994865936E+01
  40, 1.994810450E+01
  41, 1.995655868E+01
  42, 1.992534550E+01
  43, 1.996222741E+01
  44, 1.996189143E+01
  45, 1.995384914E+01
  46, 1.995815107E+01
  47, 1.996043738E+01
  48, 1.996119877E+01
  49, 1.995400871E+01
  50, 1.994727663E+01
  51, 1.996118503E+01
  52, 1.996033553E+01
  53, 1.994884187E+01
  54, 1.995712720E+01
  55, 1.995977821E+01
  56, 1.995864121E+01
  57, 1.995244486E+01
  58, 1.996371866E+01
  59, 1.995354937E+01
  60, 1.996042071E+01
  61, 1.996155882E+01
  62, 1.996100461E+01
  63, 1.994020623E+01
  64, 1.993686930E+01
  65, 1.996413259E+01
  66, 1.995654927E+01
  67, 1.993155544E+01
  68, 1.995907790E+01
  69, 1.996167293E+01
2,305,11, 1, 0, 3, 0.00,60.00,Thursday  
   6, 1.993948794E+01
   7, 1.990696074E+01
   8, 1.992717605E+01
   9, 1.994013079E+01
  10, 1.994810228E+01
  11, 1.994793200E+01
  12, 1.994275713E+01
  13, 1.994452691E+01
  14, 1.994844882E+01
  15, 1.994795087E+01
  16, 1.994856554E+01
  17, 1.993671637E+01
  18, 1.992152203E+01
  19, 1.994061081E+01
  20, 1.994683121E+01
  21, 1.994683188E+01
  22, 1.994879105E+01
  23, 1.994527205E+01
  24, 1.993880307E+01
  25, 1.994320591E+01
  26, 1.994488764E+01
  27, 1.991661281E+01
  28, 1.994599784E+01
  29, 1.994506278E+01
  30, 1.994616267E+01
  31, 1.994845136E+01
  32, 1.994408422E+01
  33, 1.994393507E+01
  34, 1.994825921E+01
  35, 1.992094230E+01
  36, 1.994922229E+01
  37, 1.994523810E+01
  38, 1.989618139E+01
  39, 1.993109643E+01
  40, 1.993054624E+01
  41, 1.994094343E+01
  42, 1.990228079E+01
  43, 1.994811583E+01
  44, 1.994766643E+01
  45, 1.993769521E+01
  46, 1.994299088E+01
  47, 1.994583115E+01
  48, 1.994678652E+01
  49, 1.993782855E+01
  50, 1.992943456E+01
  51, 1.994675291E+01
  52, 1.994565582E+01
  53, 1.993142132E+01
  54, 1.994169029E+01
  55, 1.994488686E+01
  56, 1.994352457E+01
  57, 1.993592564E+01
  58, 1.994997746E+01
  59, 1.993716302E+01
  60, 1.994587478E+01
  61, 1.994725550E+01
  62, 1.994658600E+01
  63, 1.992065132E+01
  64, 1.991660144E+01
  65, 1.995048599E+01
  66, 1.994087944E+01
  67, 1.990989024E+01
  68, 1.994419199E+01
  69, 1.994736916E+01
2,305,11, 1, 0, 4, 0.00,60.00,Thursday  
   6, 1.990823242E+01
   7, 1.987055277E+01
   8, 1.989396941E+01
   9, 1.990896040E+01
  10, 1.991815125E+01
  11, 1.991797997E+01
  12, 1.991201912E+01
  13, 1.991404500E+01
  14, 1.991852164E+01
  15, 1.991791690E+01
  16, 1.991861664E+01
  17, 1.990490878E+01
  18, 1.988724767E+01
  19, 1.990954484E+01
  20, 1.991671442E+01
  21, 1.991672349E+01
  22, 1.991896657E+01
  23, 1.991474241E+01
  24, 1.990744956E+01
  25, 1.991230151E+01
  26, 1.991441172E+01
  27, 1.988165006E+01
  28, 1.991574725E+01
  29, 1.991468771E+01
  30, 1.991583889E+01
  31, 1.991855827E+01
  32, 1.991344860E+01
  33, 1.991339005E+01
  34, 1.991831564E+01
  35, 1.988672398E+01
  36, 1.991945150E+01
  37, 1.991488584E+01
  38, 1.985811484E+01
  39, 1.989833072E+01
  40, 1.989787935E+01
  41, 1.990978254E+01
  42, 1.986512376E+01
  43, 1.991817371E+01
  44, 1.991762240E+01
  45, 1.990612439E+01
  46, 1.991224955E+01
  47, 1.991551729E+01
  48, 1.991661850E+01
  49, 1.990625768E+01
  50, 1.989648953E+01
  51, 1.991653220E+01
  52, 1.991522819E+01
  53, 1.989885222E+01
  54, 1.991070630E+01
  55, 1.991422743E+01
  56, 1.991274700E+01
  57, 1.990410587E+01
  58, 1.992033770E+01
  59, 1.990534489E+01
  60, 1.991560405E+01
  61, 1.991718195E+01
  62, 1.991644148E+01
  63, 1.988624988E+01
  64, 1.988168783E+01
  65, 1.992090130E+01
  66, 1.990962984E+01
  67, 1.987378109E+01
  68, 1.991368934E+01
  69, 1.991724230E+01
2,305,11, 1, 0, 5, 0.00,60.00,Thursday  
   6, 1.986100435E+01
   7, 1.981817338E+01
   8, 1.984480525E+01
   9, 1.986187128E+01
  10, 1.987218734E+01
  11, 1.987201202E+01
  12, 1.986535847E+01
  13, 1.986762394E+01
  14, 1.987254169E+01
  15, 1.987183313E+01
  16, 1.987258592E+01
  17, 1.985714285E+01
  18, 1.983697942E+01
  19, 1.986255686E+01
  20, 1.987062503E+01
  21, 1.987062453E+01
  22, 1.987311049E+01
  23, 1.986817379E+01
  24, 1.986015804E+01
  25, 1.986536080E+01
  26, 1.986796714E+01
  27, 1.983073693E+01
  28, 1.986954047E+01
  29, 1.986837086E+01
  30, 1.986950674E+01
  31, 1.987263917E+01
  32, 1.986683325E+01
  33, 1.986688611E+01
  34, 1.987234995E+01
  35, 1.983657662E+01
  36, 1.987362225E+01
  37, 1.986854159E+01
  38, 1.980391326E+01
  39, 1.984957151E+01
  40, 1.984928455E+01
  41, 1.986264686E+01
  42, 1.981186754E+01
  43, 1.987221728E+01
  44, 1.987157260E+01
  45, 1.985853721E+01
  46, 1.986557184E+01
  47, 1.986923409E+01
  48, 1.987046965E+01
  49, 1.985875607E+01
  50, 1.984759329E+01
  51, 1.987030343E+01
  52, 1.986878144E+01
  53, 1.985035798E+01
  54, 1.986377390E+01
  55, 1.986750329E+01
  56, 1.986596622E+01
  57, 1.985636965E+01
  58, 1.987463545E+01
  59, 1.985752768E+01
  60, 1.986930834E+01
  61, 1.987112578E+01
  62, 1.987032140E+01
  63, 1.983579726E+01
  64, 1.983077325E+01
  65, 1.987522411E+01
  66, 1.986236742E+01
  67, 1.982166860E+01
  68, 1.986724439E+01
  69, 1.987109724E+01
2,305,11, 1, 0, 6, 0.00,60.00,Thursday  
   6, 1.979889476E+01
   7, 1.975098867E+01
   8, 1.978079006E+01
   9, 1.979995168E+01
  10, 1.981127152E+01
  11, 1.981109685E+01
  12, 1.980386134E+01
  13, 1.980634354E+01
  14, 1.981157084E+01
  15, 1.981075878E+01
  16, 1.981152912E+01
  17, 1.979449899E+01
  18, 1.977180804E+01
  19, 1.980073800E+01
  20, 1.980963609E+01
  21, 1.980961085E+01
  22, 1.981228784E+01
  23, 1.980661906E+01
  24, 1.979802234E+01
  25, 1.980343708E+01
  26, 1.980662589E+01
  27, 1.976498180E+01
  28, 1.980845392E+01
  29, 1.980719399E+01
  30, 1.980822511E+01
  31, 1.981175479E+01
  32, 1.980530718E+01
  33, 1.980550805E+01
  34, 1.981141920E+01
  35, 1.977161127E+01
  36, 1.981280073E+01
  37, 1.980728631E+01
  38, 1.973495758E+01
  39, 1.978589746E+01
  40, 1.978586557E+01
  41, 1.980060728E+01
  42, 1.974377309E+01
  43, 1.981130897E+01
  44, 1.981057557E+01
  45, 1.979602330E+01
  46, 1.980403801E+01
  47, 1.980805248E+01
  48, 1.980940528E+01
  49, 1.979641058E+01
  50, 1.978383767E+01
  51, 1.980912416E+01
  52, 1.980737317E+01
  53, 1.978703621E+01
  54, 1.980197062E+01
  55, 1.980575817E+01
  56, 1.980424505E+01
  57, 1.979381362E+01
  58, 1.981393877E+01
  59, 1.979478020E+01
  60, 1.980806539E+01
  61, 1.981015363E+01
  62, 1.980930242E+01
  63, 1.977038572E+01
  64, 1.976497173E+01
  65, 1.981451704E+01
  66, 1.980015268E+01
  67, 1.975465782E+01
  68, 1.980594176E+01
  69, 1.980998786E+01
2,305,11, 1, 0, 7, 0.00,60.00,Thursday  
   6, 1.978169349E+01
   7, 1.978211519E+01
   8, 1.978205081E+01
   9, 1.978552975E+01
  10, 1.977981577E+01
  11, 1.977988766E+01
  12, 1.978405458E+01
  13, 1.978378796E+01
  14, 1.977914225E+01
  15, 1.977971185E+01
  16, 1.977854104E+01
  17, 1.978986575E+01
  18, 1.979105047E+01
  19, 1.978374017E+01
  20, 1.978131145E+01
  21, 1.978069394E+01
  22, 1.977976147E+01
  23, 1.978569208E+01
  24, 1.978289079E+01
  25, 1.979220305E+01
  26, 1.978429156E+01
  27, 1.978725034E+01
  28, 1.978245117E+01
  29, 1.978270715E+01
  30, 1.978273388E+01
  31, 1.977936267E+01
  32, 1.978597838E+01
  33, 1.978187965E+01
  34, 1.977961110E+01
  35, 1.978497834E+01
  36, 1.977872049E+01
  37, 1.978091571E+01
  38, 1.978376714E+01
  39, 1.979237893E+01
  40, 1.978379403E+01
  41, 1.978966314E+01
  42, 1.978099163E+01
  43, 1.977973255E+01
  44, 1.978051304E+01
  45, 1.978091359E+01
  46, 1.978526480E+01
  47, 1.978296919E+01
  48, 1.978176403E+01
  49, 1.978738731E+01
  50, 1.978913830E+01
  51, 1.978170917E+01
  52, 1.978396271E+01
  53, 1.978671797E+01
  54, 1.978713447E+01
  55, 1.978937162E+01
  56, 1.978841933E+01
  57, 1.978503869E+01
  58, 1.977882325E+01
  59, 1.979297757E+01
  60, 1.978052803E+01
  61, 1.978107961E+01
  62, 1.978118018E+01
  63, 1.978644103E+01
  64, 1.978040138E+01
  65, 1.977782912E+01
  66, 1.979295707E+01
  67, 1.978888940E+01
  68, 1.978252329E+01
  69, 1.978073703E+01
2,305,11, 1, 0, 8, 0.00,60.00,Thursday  
   6, 1.985729419E+01
   7, 1.996332452E+01
   8, 1.989825493E+01
   9, 1.987435993E+01
  10, 1.982090382E+01
  11, 1.982265298E+01
  12, 1.985661120E+01
  13, 1.985038013E+01
  14, 1.981785705E+01
  15, 1.982226776E+01
  16, 1.981581790E+01
  17, 1.991736437E+01
  18, 1.997827451E+01
  19, 1.986171534E+01
  20, 1.983049660E+01
  21, 1.982842607E+01
  22, 1.982121487E+01
  23, 1.986923671E+01
  24, 1.986381039E+01
  25, 1.991850028E+01
  26, 1.985488270E+01
  27, 1.996555945E+01
  28, 1.983855566E+01
  29, 1.984215497E+01
  30, 1.984431292E+01
  31, 1.981842884E+01
  32, 1.986953862E+01
  33, 1.984250777E+01
  34, 1.981984729E+01
  35, 1.993469375E+01
  36, 1.981416411E+01
  37, 1.983542465E+01
  38, 2.000999706E+01
  39, 1.995548538E+01
  40, 1.989555289E+01
  41, 1.990367918E+01
  42, 1.997703312E+01
  43, 1.982057455E+01
  44, 1.982559395E+01
  45, 1.986245181E+01
  46, 1.986472400E+01
  47, 1.984340194E+01
  48, 1.983390880E+01
  49, 1.989502181E+01
  50, 1.993587699E+01
  51, 1.983586019E+01
  52, 1.985484962E+01
  53, 1.991120941E+01
  54, 1.988226460E+01
  55, 1.989719269E+01
  56, 1.988952948E+01
  57, 1.988479575E+01
  58, 1.981334130E+01
  59, 1.994004031E+01
  60, 1.983428777E+01
  61, 1.982855788E+01
  62, 1.983074157E+01
  63, 1.995698818E+01
  64, 1.992638527E+01
  65, 1.980780917E+01
  66, 1.992900464E+01
  67, 2.000319090E+01
  68, 1.984398481E+01
  69, 1.982869620E+01
2,305,11, 1, 0, 9, 0.00,60.00,Thursday  
   6, 1.995651773E+01
   7, 2.017857972E+01
   8, 2.004204354E+01
   9, 1.998661369E+01
  10, 1.988265810E+01
  11, 1.988625647E+01
  12, 1.995175964E+01
  13, 1.993898090E+01
  14, 1.987718475E+01
  15, 1.988575303E+01
  16, 1.987376269E+01
  17, 2.006965503E+01
  18, 2.031105983E+01
  19, 1.996283079E+01
  20, 1.990079237E+01
  21, 1.989728886E+01
  22, 1.988337005E+01
  23, 1.997503824E+01
  24, 1.996853183E+01
  25, 2.006809990E+01
  26, 1.994751930E+01
  27, 2.017514510E+01
  28, 1.991612055E+01
  29, 1.992333101E+01
  30, 1.992757144E+01
  31, 1.987806743E+01
  32, 1.997555650E+01
  33, 1.992542846E+01
  34, 1.988071965E+01
  35, 2.011409353E+01
  36, 1.986997215E+01
  37, 1.991180350E+01
  38, 2.035161728E+01
  39, 2.014565664E+01
  40, 2.003381920E+01
  41, 2.004139853E+01
  42, 2.020874101E+01
  43, 1.988207733E+01
  44, 1.989160446E+01
  45, 1.996831431E+01
  46, 1.996693315E+01
  47, 1.992547553E+01
  48, 1.990731992E+01
  49, 2.002688276E+01
  50, 2.010989280E+01
  51, 1.991142155E+01
  52, 1.994769619E+01
  53, 2.006210766E+01
  54, 2.000062836E+01
  55, 2.002770501E+01
  56, 2.001350674E+01
  57, 2.000936497E+01
  58, 1.986814019E+01
  59, 2.011212102E+01
  60, 1.990970910E+01
  61, 1.989704013E+01
  62, 1.990148828E+01
  63, 2.016879446E+01
  64, 2.010340606E+01
  65, 1.985784381E+01
  66, 2.008912346E+01
  67, 2.197318754E+01
  68, 1.992758812E+01
  69, 1.989781539E+01
2,305,11, 1, 0,10, 0.00,60.00,Thursday  
   6, 2.002708721E+01
   7, 2.034412636E+01
   8, 2.014892752E+01
   9, 2.006189441E+01
  10, 1.992387709E+01
  11, 1.992911278E+01
  12, 2.001598284E+01
  13, 1.999777639E+01
  14, 1.991649079E+01
  15, 1.992784950E+01
  16, 1.991209904E+01
  17, 2.016587840E+01
  18, 2.361380211E+01
  19, 2.003287113E+01
  20, 1.994810081E+01
  21, 1.994401939E+01
  22, 1.992466611E+01
  23, 2.003857725E+01
  24, 2.004254731E+01
  25, 2.015243936E+01
  26, 2.000711961E+01
  27, 2.032399078E+01
  28, 1.996796019E+01
  29, 1.997821932E+01
  30, 1.998099039E+01
  31, 1.991790016E+01
  32, 2.004165315E+01
  33, 1.998251000E+01
  34, 1.992119888E+01
  35, 2.024467621E+01
  36, 1.990696478E+01
  37, 1.996416893E+01
  38, 2.217547774E+01
  39, 2.079976226E+01
  40, 2.013369448E+01
  41, 2.012500053E+01
  42, 2.043699995E+01
  43, 1.992321774E+01
  44, 1.993549089E+01
  45, 2.004399532E+01
  46, 2.003343151E+01
  47, 1.997932996E+01
  48, 1.995598803E+01
  49, 2.011349397E+01
  50, 2.022546450E+01
  51, 1.996079366E+01
  52, 2.000565362E+01
  53, 2.016573905E+01
  54, 2.007559282E+01
  55, 2.010147800E+01
  56, 2.008742064E+01
  57, 2.009581801E+01
  58, 1.990427819E+01
  59, 2.021511388E+01
  60, 1.996089507E+01
  61, 1.994281579E+01
  62, 1.994939506E+01
  63, 2.037343183E+01
  64, 2.023895831E+01
  65, 1.989059551E+01
  66, 2.018137359E+01
  67, 2.509299175E+01
  68, 1.998465046E+01
  69, 1.994345514E+01
2,305,11, 1, 0,11, 0.00,60.00,Thursday  
   6, 2.004300067E+01
   7, 2.055576992E+01
   8, 2.018871465E+01
   9, 2.006748753E+01
  10, 1.992445778E+01
  11, 1.992999135E+01
  12, 2.002200875E+01
  13, 1.999995454E+01
  14, 1.991613461E+01
  15, 1.992823458E+01
  16, 1.991157669E+01
  17, 2.062036931E+01
  18, 2.596934523E+01
  19, 2.004418414E+01
  20, 1.995077937E+01
  21, 1.994706894E+01
  22, 1.992270389E+01
  23, 2.002077817E+01
  24, 2.005888345E+01
  25, 2.011108766E+01
  26, 2.000376373E+01
  27, 2.373166261E+01
  28, 1.997052417E+01
  29, 1.998286490E+01
  30, 1.997719398E+01
  31, 1.991787072E+01
  32, 2.003156177E+01
  33, 1.999041652E+01
  34, 1.992135363E+01
  35, 2.028755705E+01
  36, 1.990527032E+01
  37, 1.996968531E+01
  38, 2.563150854E+01
  39, 2.555464405E+01
  40, 2.016338291E+01
  41, 2.018691161E+01
  42, 2.088703937E+01
  43, 1.992385304E+01
  44, 1.993632846E+01
  45, 2.006163121E+01
  46, 2.003290697E+01
  47, 1.997928640E+01
  48, 1.995707679E+01
  49, 2.011446954E+01
  50, 2.196382494E+01
  51, 1.995984651E+01
  52, 1.999665406E+01
  53, 2.018215963E+01
  54, 2.006844580E+01
  55, 2.006560841E+01
  56, 2.006539785E+01
  57, 2.011159562E+01
  58, 1.990093244E+01
  59, 2.331896715E+01
  60, 1.996319152E+01
  61, 1.994450445E+01
  62, 1.995276811E+01
  63, 2.054060628E+01
  64, 2.033423190E+01
  65, 1.988639986E+01
  66, 2.075887152E+01
  67, 2.518189754E+01
  68, 1.999150502E+01
  69, 1.994373618E+01
2,305,11, 1, 0,12, 0.00,60.00,Thursday  
   6, 2.006680994E+01
   7, 2.300330228E+01
   8, 2.022999464E+01
   9, 2.008567151E+01
  10, 1.993577015E+01
  11, 1.994202392E+01
  12, 2.003927511E+01
  13, 2.001428585E+01
  14, 1.992639493E+01
  15, 1.993903547E+01
  16, 1.992136364E+01
  17, 2.397821746E+01
  18, 2.280873959E+01
  19, 2.006523366E+01
  20, 1.996415487E+01
  21, 1.996073439E+01
  22, 1.993310575E+01
  23, 2.002331560E+01
  24, 2.008328947E+01
  25, 2.010236281E+01
  26, 2.001471538E+01
  27, 2.675522922E+01
  28, 1.998428436E+01
  29, 1.999831875E+01
  30, 1.998690986E+01
  31, 1.992878722E+01
  32, 2.003923982E+01
  33, 2.000812401E+01
  34, 1.993221838E+01
  35, 2.299547840E+01
  36, 1.991493795E+01
  37, 1.998555225E+01
  38, 2.756612699E+01
  39, 2.222539989E+01
  40, 2.019813145E+01
  41, 2.026656197E+01
  42, 2.097903982E+01
  43, 1.993526017E+01
  44, 1.994789423E+01
  45, 2.008692376E+01
  46, 2.004647071E+01
  47, 1.999155392E+01
  48, 1.996939854E+01
  49, 2.224417945E+01
  50, 2.610344982E+01
  51, 1.997078646E+01
  52, 2.000378610E+01
  53, 2.304261076E+01
  54, 2.016648459E+01
  55, 2.005869352E+01
  56, 2.006689301E+01
  57, 2.013690965E+01
  58, 1.990987356E+01
  59, 2.144475174E+01
  60, 1.997712175E+01
  61, 1.995699316E+01
  62, 1.996669774E+01
  63, 2.046684113E+01
  64, 2.051119625E+01
  65, 1.989424145E+01
  66, 2.030718394E+01
  67, 2.319902681E+01
  68, 2.000855672E+01
  69, 1.995494520E+01
2,305,11, 1, 0,13, 0.00,60.00,Thursday  
   6, 2.007780293E+01
   7, 2.580132983E+01
   8, 2.045235257E+01
   9, 2.302299539E+01
  10, 1.994084859E+01
  11, 1.994774854E+01
  12, 2.037472313E+01
  13, 2.029992077E+01
  14, 1.993073168E+01
  15, 1.994313963E+01
  16, 1.992518446E+01
  17, 2.112888099E+01
  18, 2.191792313E+01
  19, 2.022643290E+01
  20, 1.997004585E+01
  21, 1.996703578E+01
  22, 1.993826284E+01
  23, 2.002360064E+01
  24, 2.009436873E+01
  25, 2.009808252E+01
  26, 2.001897170E+01
  27, 2.387174616E+01
  28, 1.999008606E+01
  29, 2.000506541E+01
  30, 1.999040730E+01
  31, 1.993390121E+01
  32, 2.004205438E+01
  33, 2.001621634E+01
  34, 1.993697882E+01
  35, 2.614624504E+01
  36, 1.991961274E+01
  37, 1.999297686E+01
  38, 2.628329684E+01
  39, 2.143034802E+01
  40, 2.194833184E+01
  41, 2.015861140E+01
  42, 2.107897332E+01
  43, 1.994048682E+01
  44, 1.995259831E+01
  45, 2.009879239E+01
  46, 2.101887705E+01
  47, 1.999641013E+01
  48, 1.997432919E+01
  49, 2.264143623E+01
  50, 2.207432078E+01
  51, 1.997484311E+01
  52, 2.000608551E+01
  53, 2.544055160E+01
  54, 2.046371292E+01
  55, 2.005491272E+01
  56, 2.006701046E+01
  57, 2.367001098E+01
  58, 1.991439813E+01
  59, 2.087384483E+01
  60, 1.998386170E+01
  61, 1.996232498E+01
  62, 1.997297772E+01
  63, 2.043039349E+01
  64, 2.073211966E+01
  65, 1.989826946E+01
  66, 2.025208030E+01
  67, 2.219394707E+01
  68, 2.001619404E+01
  69, 1.995915628E+01
2,305,11, 1, 0,14, 0.00,60.00,Thursday  
   6, 2.008092788E+01
   7, 2.590125138E+01
   8, 2.254746675E+01
   9, 2.133464334E+01
  10, 1.992719288E+01
  11, 1.993378348E+01
  12, 2.304998673E+01
  13, 2.049360501E+01
  14, 1.991685673E+01
  15, 1.992710714E+01
  16, 1.991075246E+01
  17, 2.087947128E+01
  18, 2.161014821E+01
  19, 2.375323221E+01
  20, 2.019180046E+01
  21, 1.995233707E+01
  22, 1.992411036E+01
  23, 2.000012219E+01
  24, 2.145161237E+01
  25, 2.006806273E+01
  26, 1.999856614E+01
  27, 2.225570128E+01
  28, 2.092711962E+01
  29, 2.201222850E+01
  30, 1.997075431E+01
  31, 1.992082083E+01
  32, 2.001940879E+01
  33, 1.999950523E+01
  34, 1.996472311E+01
  35, 2.366572533E+01
  36, 1.990709476E+01
  37, 1.997721582E+01
  38, 2.386489101E+01
  39, 2.118700739E+01
  40, 2.474630248E+01
  41, 2.012138119E+01
  42, 2.082939218E+01
  43, 1.992703620E+01
  44, 2.004855828E+01
  45, 2.011472203E+01
  46, 2.025958205E+01
  47, 1.999746448E+01
  48, 2.018027489E+01
  49, 2.096772855E+01
  50, 2.152369732E+01
  51, 1.995651625E+01
  52, 1.998482887E+01
  53, 2.186572542E+01
  54, 2.016041818E+01
  55, 2.002731908E+01
  56, 2.004132607E+01
  57, 2.356843406E+01
  58, 1.990144729E+01
  59, 2.071586096E+01
  60, 1.996800238E+01
  61, 2.038748836E+01
  62, 1.995785519E+01
  63, 2.038777519E+01
  64, 2.063802040E+01
  65, 1.988640564E+01
  66, 2.020072305E+01
  67, 2.185989452E+01
  68, 2.083674617E+01
  69, 1.994198703E+01
2,305,11, 1, 0,15, 0.00,60.00,Thursday  
   6, 2.074673693E+01
   7, 2.325358580E+01
   8, 2.274342261E+01
   9, 2.068187532E+01
  10, 2.153815622E+01
  11, 1.990444927E+01
  12, 2.074051690E+01
  13, 2.010813516E+01
  14, 2.007636201E+01
  15, 1.989339079E+01
  16, 1.989084135E+01
  17, 2.068946477E+01
  18, 2.131477180E+01
  19, 2.142943263E+01
  20, 2.177489547E+01
  21, 1.998224235E+01
  22, 1.988879723E+01
  23, 1.994856769E+01
  24, 2.266068268E+01
  25, 2.000877655E+01
  26, 1.995086330E+01
  27, 2.182924085E+01
  28, 2.016533226E+01
  29, 2.078450633E+01
  30, 1.992468297E+01
  31, 1.990084170E+01
  32, 1.996789228E+01
  33, 2.107328591E+01
  34, 2.074000935E+01
  35, 2.196629715E+01
  36, 1.988772360E+01
  37, 1.994878602E+01
  38, 2.282179355E+01
  39, 2.095275461E+01
  40, 2.220394831E+01
  41, 2.005633669E+01
  42, 2.063680197E+01
  43, 2.008381973E+01
  44, 1.993735858E+01
  45, 2.005732127E+01
  46, 2.015566741E+01
  47, 1.993912372E+01
  48, 1.997203020E+01
  49, 2.073129243E+01
  50, 2.122844351E+01
  51, 1.991366830E+01
  52, 1.993597254E+01
  53, 2.139191685E+01
  54, 2.008296197E+01
  55, 1.997179546E+01
  56, 1.998615183E+01
  57, 2.132334648E+01
  58, 1.987190868E+01
  59, 2.055448476E+01
  60, 1.992626632E+01
  61, 2.020159511E+01
  62, 2.138610398E+01
  63, 2.029902816E+01
  64, 2.043180448E+01
  65, 1.986539161E+01
  66, 2.012220502E+01
  67, 2.153457766E+01
  68, 2.224837710E+01
  69, 1.990308791E+01
2,305,11, 1, 0,16, 0.00,60.00,Thursday  
   6, 2.050400290E+01
   7, 2.211556659E+01
   8, 2.105506373E+01
   9, 2.046903994E+01
  10, 2.034703006E+01
  11, 1.986354526E+01
  12, 2.048297241E+01
  13, 1.999935330E+01
  14, 1.989516057E+01
  15, 1.983321742E+01
  16, 1.983929902E+01
  17, 2.048214647E+01
  18, 2.099977664E+01
  19, 2.073106376E+01
  20, 2.033522710E+01
  21, 2.049137083E+01
  22, 1.982661135E+01
  23, 1.986508134E+01
  24, 2.082783648E+01
  25, 1.991606769E+01
  26, 1.987080483E+01
  27, 2.142584195E+01
  28, 2.004150795E+01
  29, 2.033066599E+01
  30, 1.984758675E+01
  31, 2.014179955E+01
  32, 1.988301392E+01
  33, 2.060211270E+01
  34, 2.006268758E+01
  35, 2.151036669E+01
  36, 1.984705753E+01
  37, 2.012045087E+01
  38, 2.223743128E+01
  39, 2.070014645E+01
  40, 2.120860476E+01
  41, 1.995597769E+01
  42, 2.043121797E+01
  43, 2.038503697E+01
  44, 1.987079868E+01
  45, 1.994497328E+01
  46, 2.004146004E+01
  47, 1.986395605E+01
  48, 1.989308305E+01
  49, 2.051707414E+01
  50, 2.092914483E+01
  51, 1.984087520E+01
  52, 1.985542349E+01
  53, 2.106257431E+01
  54, 1.997905374E+01
  55, 1.988451468E+01
  56, 1.989726440E+01
  57, 2.096634531E+01
  58, 1.981813544E+01
  59, 2.036975566E+01
  60, 1.985373680E+01
  61, 1.998328652E+01
  62, 2.042926584E+01
  63, 2.015455553E+01
  64, 2.024473185E+01
  65, 1.982334185E+01
  66, 2.001053263E+01
  67, 2.118060341E+01
  68, 2.056490121E+01
  69, 1.983573438E+01
2,305,11, 1, 0,17, 0.00,60.00,Thursday  
   6, 1.998438524E+01
   7, 2.151371450E+01
   8, 2.058532099E+01
   9, 2.020689680E+01
  10, 2.001683610E+01
  11, 1.970230925E+01
  12, 2.021845729E+01
  13, 1.982087049E+01
  14, 1.972407066E+01
  15, 1.968502620E+01
  16, 1.968442290E+01
  17, 2.021724758E+01
  18, 2.062595110E+01
  19, 2.041295786E+01
  20, 2.006664253E+01
  21, 1.986342710E+01
  22, 1.968816382E+01
  23, 1.971772812E+01
  24, 2.040692668E+01
  25, 1.975885738E+01
  26, 1.971801707E+01
  27, 2.097044471E+01
  28, 1.985431210E+01
  29, 2.008670819E+01
  30, 1.970159206E+01
  31, 1.976696122E+01
  32, 1.972884746E+01
  33, 2.003384653E+01
  34, 1.985189526E+01
  35, 2.104452872E+01
  36, 1.969052400E+01
  37, 1.977609203E+01
  38, 2.161283795E+01
  39, 2.039179669E+01
  40, 2.079315412E+01
  41, 1.978624438E+01
  42, 2.012179572E+01
  43, 1.984489741E+01
  44, 1.971216033E+01
  45, 1.977224674E+01
  46, 1.985637758E+01
  47, 1.971144483E+01
  48, 1.973389411E+01
  49, 2.024589512E+01
  50, 2.057762244E+01
  51, 1.969514529E+01
  52, 1.970883454E+01
  53, 2.068946204E+01
  54, 1.980460301E+01
  55, 1.973512841E+01
  56, 1.974167733E+01
  57, 2.061279133E+01
  58, 1.967960923E+01
  59, 2.012650055E+01
  60, 1.970834812E+01
  61, 1.980053316E+01
  62, 2.002331327E+01
  63, 1.992309864E+01
  64, 1.998831808E+01
  65, 1.967752247E+01
  66, 1.983359649E+01
  67, 2.075819922E+01
  68, 2.023570565E+01
  69, 1.968950783E+01
2,305,11, 1, 0,18, 0.00,60.00,Thursday  
   6, 1.983794175E+01
   7, 2.109897285E+01
   8, 2.033536333E+01
   9, 2.002893334E+01
  10, 1.987021069E+01
  11, 1.961241885E+01
  12, 2.003948019E+01
  13, 1.970902754E+01
  14, 1.962840084E+01
  15, 1.959603916E+01
  16, 1.959531180E+01
  17, 2.003656338E+01
  18, 2.036919077E+01
  19, 2.020036050E+01
  20, 1.991320099E+01
  21, 1.973576147E+01
  22, 1.960434659E+01
  23, 1.962350307E+01
  24, 2.019239380E+01
  25, 1.965831263E+01
  26, 1.962346921E+01
  27, 2.065279732E+01
  28, 1.973720083E+01
  29, 1.993038698E+01
  30, 1.960988209E+01
  31, 1.965928765E+01
  32, 1.963243649E+01
  33, 1.987936740E+01
  34, 1.973465908E+01
  35, 2.071655138E+01
  36, 1.960280943E+01
  37, 1.967003389E+01
  38, 2.117613522E+01
  39, 2.017950363E+01
  40, 2.051192121E+01
  41, 1.967955798E+01
  42, 1.993867357E+01
  43, 1.972224591E+01
  44, 1.961880452E+01
  45, 1.966839077E+01
  46, 1.973817182E+01
  47, 1.961815136E+01
  48, 1.963694456E+01
  49, 2.006056582E+01
  50, 2.033282999E+01
  51, 1.960454646E+01
  52, 1.961592955E+01
  53, 2.042668382E+01
  54, 1.969473689E+01
  55, 1.963861751E+01
  56, 1.964334427E+01
  57, 2.036490095E+01